
     Program PWSCF v.7.0 starts on 10Feb2023 at 10: 9:57 

     This program is part of the open-source Quantum ESPRESSO suite
     for quantum simulation of materials; please cite
         "P. Giannozzi et al., J. Phys.:Condens. Matter 21 395502 (2009);
         "P. Giannozzi et al., J. Phys.:Condens. Matter 29 465901 (2017);
         "P. Giannozzi et al., J. Chem. Phys. 152 154105 (2020);
          URL http://www.quantum-espresso.org", 
     in publications or presentations arising from this work. More details at
     http://www.quantum-espresso.org/quote

     Parallel version (MPI & OpenMP), running on       8 processor cores
     Number of MPI processes:                 1
     Threads/MPI process:                     8

     MPI processes distributed on     1 nodes
     5016 MiB available memory on the printing compute node when the environment starts

     Reading input from perfect_crystal.in

     Current dimensions of program PWSCF are:
     Max number of different atomic species (ntypx) = 10
     Max number of k-points (npk) =  40000
     Max angular momentum in pseudopotentials (lmaxx) =  4
     Found identity + (  0.5000  0.5000  0.0000) symmetry
     This is a supercell, fractional translations are disabled
     Message from routine setup:
     using ibrav=0 with symmetry is DISCOURAGED, use correct ibrav instead

     Subspace diagonalization in iterative solution of the eigenvalue problem:
     a serial algorithm will be used


     G-vector sticks info
     --------------------
     sticks:   dense  smooth     PW     G-vecs:    dense   smooth      PW
     Sum         673     673    213                13301    13301    2205

     Using Slab Decomposition



     bravais-lattice index     =            0
     lattice parameter (alat)  =      10.3330  a.u.
     unit-cell volume          =    1103.2636 (a.u.)^3
     number of atoms/cell      =            8
     number of atomic types    =            1
     number of electrons       =        32.00
     number of Kohn-Sham states=           16
     kinetic-energy cutoff     =      20.0000  Ry
     charge density cutoff     =      80.0000  Ry
     scf convergence threshold =      1.0E-06
     mixing beta               =       0.7000
     number of iterations used =            8  plain     mixing
     Exchange-correlation= SLA  PW   PBE  PBE
                           (   1   4   3   4   0   0   0)

     celldm(1)=  10.333000  celldm(2)=   0.000000  celldm(3)=   0.000000
     celldm(4)=   0.000000  celldm(5)=   0.000000  celldm(6)=   0.000000

     crystal axes: (cart. coord. in units of alat)
               a(1) = (   1.000000   0.000000   0.000000 )  
               a(2) = (   0.000000   1.000000   0.000000 )  
               a(3) = (   0.000000   0.000000   1.000000 )  

     reciprocal axes: (cart. coord. in units 2 pi/alat)
               b(1) = (  1.000000  0.000000  0.000000 )  
               b(2) = (  0.000000  1.000000  0.000000 )  
               b(3) = (  0.000000  0.000000  1.000000 )  


     PseudoPot. # 1 for Si read from file:
     ./Si.pbe-rrkj.UPF
     MD5 check sum: 8af8e7039d270e0118f3b3651cf51d3d
     Pseudo is Norm-conserving, Zval =  4.0
     Generated by new atomic code, or converted to UPF format
     Using radial grid of  883 points,  3 beta functions with: 
                l(1) =   0
                l(2) =   0
                l(3) =   1

     atomic species   valence    mass     pseudopotential
        Si             4.00    28.08600     Si( 1.00)

     24 Sym. Ops. (no inversion) found



   Cartesian axes

     site n.     atom                  positions (alat units)
         1           Si  tau(   1) = (   0.5000000   0.5000000   0.0000000  )
         2           Si  tau(   2) = (   0.0000000   0.0000000   0.0000000  )
         3           Si  tau(   3) = (   0.5000000   0.0000000   0.5000000  )
         4           Si  tau(   4) = (   0.0000000   0.5000000   0.5000000  )
         5           Si  tau(   5) = (   0.7500000   0.7500000   0.2500000  )
         6           Si  tau(   6) = (   0.2500000   0.2500000   0.2500000  )
         7           Si  tau(   7) = (   0.7500000   0.2500000   0.7500000  )
         8           Si  tau(   8) = (   0.2500000   0.7500000   0.7500000  )

     number of k points=    10
                       cart. coord. in units 2pi/alat
        k(    1) = (   0.0833333   0.0833333   0.0833333), wk =   0.0740741
        k(    2) = (   0.0833333   0.0833333   0.2500000), wk =   0.2222222
        k(    3) = (   0.0833333   0.0833333   0.4166667), wk =   0.2222222
        k(    4) = (   0.0833333   0.2500000   0.2500000), wk =   0.2222222
        k(    5) = (   0.0833333   0.2500000   0.4166667), wk =   0.4444444
        k(    6) = (   0.0833333   0.4166667   0.4166667), wk =   0.2222222
        k(    7) = (   0.2500000   0.2500000   0.2500000), wk =   0.0740741
        k(    8) = (   0.2500000   0.2500000   0.4166667), wk =   0.2222222
        k(    9) = (   0.2500000   0.4166667   0.4166667), wk =   0.2222222
        k(   10) = (   0.4166667   0.4166667   0.4166667), wk =   0.0740741

     Dense  grid:    13301 G-vectors     FFT dimensions: (  30,  30,  30)

     Estimated max dynamical RAM per process >      14.68 MB

     Initial potential from superposition of free atoms

     starting charge      31.9956, renormalised to      32.0000
     Starting wfcs are   32 randomized atomic wfcs

     total cpu time spent up to now is        1.6 secs

     per-process dynamical memory:    21.1 Mb

     Self-consistent Calculation

     iteration #  1     ecut=    20.00 Ry     beta= 0.70
     Davidson diagonalization with overlap
     ethr =  1.00E-02,  avg # of iterations =  2.0

     Threshold (ethr) on eigenvalues was too large:
     Diagonalizing with lowered threshold

     Davidson diagonalization with overlap
     ethr =  5.71E-04,  avg # of iterations =  2.0

     total cpu time spent up to now is        8.1 secs

     total energy              =     -62.95549815 Ry
     estimated scf accuracy    <       0.21534150 Ry

     iteration #  2     ecut=    20.00 Ry     beta= 0.70
     Davidson diagonalization with overlap
     ethr =  6.73E-04,  avg # of iterations =  1.0

     total cpu time spent up to now is       10.3 secs

     total energy              =     -62.96237493 Ry
     estimated scf accuracy    <       0.01224540 Ry

     iteration #  3     ecut=    20.00 Ry     beta= 0.70
     Davidson diagonalization with overlap
     ethr =  3.83E-05,  avg # of iterations =  2.4

     total cpu time spent up to now is       14.0 secs

     total energy              =     -62.96474117 Ry
     estimated scf accuracy    <       0.00036848 Ry

     iteration #  4     ecut=    20.00 Ry     beta= 0.70
     Davidson diagonalization with overlap
     ethr =  1.15E-06,  avg # of iterations =  5.5

     total cpu time spent up to now is       19.4 secs

     total energy              =     -62.96502165 Ry
     estimated scf accuracy    <       0.00001927 Ry

     iteration #  5     ecut=    20.00 Ry     beta= 0.70
     Davidson diagonalization with overlap
     ethr =  6.02E-08,  avg # of iterations =  5.4

     total cpu time spent up to now is       24.8 secs

     End of self-consistent calculation

          k = 0.0833 0.0833 0.0833 (  1686 PWs)   bands (ev):

    -5.6567  -2.2650  -2.2647  -2.2647  -1.0253  -1.0251  -1.0251   2.9157
     2.9158   2.9158   3.2999   3.2999   3.3001   5.1719   5.8772   5.8772

          k = 0.0833 0.0833 0.2500 (  1681 PWs)   bands (ev):

    -5.4196  -3.3521  -2.1751  -2.1749  -1.0177  -1.0175   0.3023   2.3559
     2.3560   3.1153   3.1154   3.1811   3.5122   4.1178   5.2443   5.4265

          k = 0.0833 0.0833 0.4167 (  1668 PWs)   bands (ev):

    -4.9496  -4.2553  -2.0709  -2.0707  -1.0254  -1.0253   1.6484   2.0330
     2.0331   2.7949   2.7949   2.9327   3.7169   3.9287   4.5120   4.5263

          k = 0.0833 0.2500 0.2500 (  1664 PWs)   bands (ev):

    -5.1871  -3.1865  -3.1863  -2.2783  -0.9313   0.0827   0.0828   1.9087
     2.6716   2.6716   3.1215   3.4502   3.4503   3.6684   4.6667   5.6692

          k = 0.0833 0.2500 0.4167 (  1661 PWs)   bands (ev):

    -4.7276  -4.0530  -2.8886  -2.5415  -0.6849  -0.2996   1.1197   1.8811
     2.1101   2.1933   3.2178   3.4500   3.6516   3.9032   4.1459   5.0560

          k = 0.0833 0.4167 0.4167 (  1666 PWs)   bands (ev):

    -4.2923  -3.6649  -3.6647  -3.1320  -0.1863   0.4382   0.4382   1.2352
     2.0947   2.5857   2.5857   3.1829   4.3337   4.4001   4.4004   5.1058

          k = 0.2500 0.2500 0.2500 (  1658 PWs)   bands (ev):

    -4.9611  -3.0805  -3.0802  -3.0802  -0.2645  -0.2645  -0.2645   2.1585
     2.5645   2.5647   2.5647   3.8599   3.8599   3.8601   5.2737   5.2737

          k = 0.2500 0.2500 0.4167 (  1670 PWs)   bands (ev):

    -4.5170  -3.8749  -2.9552  -2.9550  -0.6017  -0.6017   0.4404   1.2350
     2.6245   2.6247   3.6372   3.9226   3.9226   4.2273   4.7293   4.7628

          k = 0.2500 0.4167 0.4167 (  1667 PWs)   bands (ev):

    -4.1117  -3.5551  -3.5549  -3.1930  -0.6292  -0.2324  -0.2324   0.4014
     3.0908   3.5087   3.5088   4.2074   4.4582   4.4950   4.4953   5.0422

          k = 0.4167 0.4167 0.4167 (  1655 PWs)   bands (ev):

    -3.7880  -3.4254  -3.4250  -3.4250  -0.7243  -0.7243  -0.7243  -0.3301
     4.2711   4.2714   4.2714   4.6685   4.6685   4.6687   4.8899   4.8899

     highest occupied level (ev):     5.8772

!    total energy              =     -62.96503182 Ry
     estimated scf accuracy    <       0.00000066 Ry

     The total energy is the sum of the following terms:
     one-electron contribution =      18.47836640 Ry
     hartree contribution      =       4.44796423 Ry
     xc contribution           =     -19.16242071 Ry
     ewald contribution        =     -66.72894174 Ry

     convergence has been achieved in   5 iterations

     Forces acting on atoms (cartesian axes, Ry/au):

     atom    1 type  1   force =     0.00000000    0.00000000    0.00000000
     atom    2 type  1   force =     0.00000000    0.00000000    0.00000000
     atom    3 type  1   force =     0.00000000    0.00000000    0.00000000
     atom    4 type  1   force =     0.00000000    0.00000000    0.00000000
     atom    5 type  1   force =    -0.00000079   -0.00000079    0.00000079
     atom    6 type  1   force =     0.00000079    0.00000079    0.00000079
     atom    7 type  1   force =    -0.00000079    0.00000079   -0.00000079
     atom    8 type  1   force =     0.00000079   -0.00000079   -0.00000079

     Total force =     0.000003     Total SCF correction =     0.000242
     SCF correction compared to forces is large: reduce conv_thr to get better values


     Computing stress (Cartesian axis) and pressure

          total   stress  (Ry/bohr**3)                   (kbar)     P=        2.11
   0.00001433   0.00000000   0.00000000            2.11        0.00        0.00
   0.00000000   0.00001433   0.00000000            0.00        2.11        0.00
   0.00000000   0.00000000   0.00001433            0.00        0.00        2.11


     Writing all to output data dir ./Si8.save/

     init_run     :      9.64s CPU      1.58s WALL (       1 calls)
     electrons    :    136.69s CPU     23.16s WALL (       1 calls)
     forces       :      1.34s CPU      0.23s WALL (       1 calls)
     stress       :      1.57s CPU      0.28s WALL (       1 calls)

     Called by init_run:
     wfcinit      :      8.92s CPU      1.36s WALL (       1 calls)
     potinit      :      0.03s CPU      0.01s WALL (       1 calls)
     hinit0       :      0.68s CPU      0.20s WALL (       1 calls)

     Called by electrons:
     c_bands      :    127.18s CPU     21.81s WALL (       6 calls)
     sum_band     :      9.28s CPU      1.32s WALL (       6 calls)
     v_of_rho     :      0.14s CPU      0.02s WALL (       6 calls)
     mix_rho      :      0.06s CPU      0.01s WALL (       6 calls)

     Called by c_bands:
     init_us_2    :      1.57s CPU      0.38s WALL (     150 calls)
     init_us_2:cp :      1.57s CPU      0.38s WALL (     150 calls)
     cegterg      :    125.53s CPU     21.44s WALL (      60 calls)

     Called by *egterg:
     cdiaghg      :      0.77s CPU      0.19s WALL (     233 calls)
     h_psi        :    116.59s CPU     19.21s WALL (     253 calls)
     g_psi        :      2.81s CPU      0.58s WALL (     183 calls)

     Called by h_psi:
     h_psi:calbec :      8.38s CPU      1.45s WALL (     253 calls)
     vloc_psi     :    106.30s CPU     17.40s WALL (     253 calls)
     add_vuspsi   :      0.43s CPU      0.08s WALL (     253 calls)

     General routines
     calbec       :      9.33s CPU      1.57s WALL (     303 calls)
     fft          :      0.72s CPU      0.19s WALL (      68 calls)
     ffts         :      0.00s CPU      0.00s WALL (       6 calls)
     fftw         :    111.17s CPU     17.96s WALL (    7294 calls)

     Parallel routines

     PWSCF        :   2m29.56s CPU     25.35s WALL


   This run was terminated on:  10:10:23  10Feb2023            

=------------------------------------------------------------------------------=
   JOB DONE.
=------------------------------------------------------------------------------=
