
     Program PWSCF v.7.0 starts on 10Feb2023 at 10:29:21 

     This program is part of the open-source Quantum ESPRESSO suite
     for quantum simulation of materials; please cite
         "P. Giannozzi et al., J. Phys.:Condens. Matter 21 395502 (2009);
         "P. Giannozzi et al., J. Phys.:Condens. Matter 29 465901 (2017);
         "P. Giannozzi et al., J. Chem. Phys. 152 154105 (2020);
          URL http://www.quantum-espresso.org", 
     in publications or presentations arising from this work. More details at
     http://www.quantum-espresso.org/quote

     Parallel version (MPI & OpenMP), running on       8 processor cores
     Number of MPI processes:                 1
     Threads/MPI process:                     8

     MPI processes distributed on     1 nodes
     4655 MiB available memory on the printing compute node when the environment starts

     Reading input from single_vacancy1.in

     Current dimensions of program PWSCF are:
     Max number of different atomic species (ntypx) = 10
     Max number of k-points (npk) =  40000
     Max angular momentum in pseudopotentials (lmaxx) =  4
     Message from routine setup:
     using ibrav=0 with symmetry is DISCOURAGED, use correct ibrav instead

     Subspace diagonalization in iterative solution of the eigenvalue problem:
     a serial algorithm will be used


     G-vector sticks info
     --------------------
     sticks:   dense  smooth     PW     G-vecs:    dense   smooth      PW
     Sum         673     673    213                13301    13301    2205

     Using Slab Decomposition



     bravais-lattice index     =            0
     lattice parameter (alat)  =      10.3330  a.u.
     unit-cell volume          =    1103.2636 (a.u.)^3
     number of atoms/cell      =            7
     number of atomic types    =            1
     number of electrons       =        28.00
     number of Kohn-Sham states=           14
     kinetic-energy cutoff     =      20.0000  Ry
     charge density cutoff     =      80.0000  Ry
     scf convergence threshold =      1.0E-06
     mixing beta               =       0.7000
     number of iterations used =            8  plain     mixing
     Exchange-correlation= SLA  PW   PBE  PBE
                           (   1   4   3   4   0   0   0)

     celldm(1)=  10.333000  celldm(2)=   0.000000  celldm(3)=   0.000000
     celldm(4)=   0.000000  celldm(5)=   0.000000  celldm(6)=   0.000000

     crystal axes: (cart. coord. in units of alat)
               a(1) = (   1.000000   0.000000   0.000000 )  
               a(2) = (   0.000000   1.000000   0.000000 )  
               a(3) = (   0.000000   0.000000   1.000000 )  

     reciprocal axes: (cart. coord. in units 2 pi/alat)
               b(1) = (  1.000000  0.000000  0.000000 )  
               b(2) = (  0.000000  1.000000  0.000000 )  
               b(3) = (  0.000000  0.000000  1.000000 )  


     PseudoPot. # 1 for Si read from file:
     ./Si.pbe-rrkj.UPF
     MD5 check sum: 8af8e7039d270e0118f3b3651cf51d3d
     Pseudo is Norm-conserving, Zval =  4.0
     Generated by new atomic code, or converted to UPF format
     Using radial grid of  883 points,  3 beta functions with: 
                l(1) =   0
                l(2) =   0
                l(3) =   1

     atomic species   valence    mass     pseudopotential
        Si             4.00    28.08600     Si( 1.00)

     24 Sym. Ops. (no inversion) found (18 have fractional translation)



   Cartesian axes

     site n.     atom                  positions (alat units)
         1           Si  tau(   1) = (   0.5000000   0.5000000   0.0000000  )
         2           Si  tau(   2) = (   0.0000000   0.0000000   0.0000000  )
         3           Si  tau(   3) = (   0.5000000   0.0000000   0.5000000  )
         4           Si  tau(   4) = (   0.0000000   0.5000000   0.5000000  )
         5           Si  tau(   5) = (   0.7500000   0.7500000   0.2500000  )
         6           Si  tau(   6) = (   0.2500000   0.2500000   0.2500000  )
         7           Si  tau(   7) = (   0.7500000   0.2500000   0.7500000  )

     number of k points=    10
                       cart. coord. in units 2pi/alat
        k(    1) = (   0.0833333   0.0833333   0.0833333), wk =   0.0740741
        k(    2) = (   0.0833333   0.0833333   0.2500000), wk =   0.2222222
        k(    3) = (   0.0833333   0.0833333   0.4166667), wk =   0.2222222
        k(    4) = (   0.0833333   0.2500000   0.2500000), wk =   0.2222222
        k(    5) = (   0.0833333   0.2500000   0.4166667), wk =   0.4444444
        k(    6) = (   0.0833333   0.4166667   0.4166667), wk =   0.2222222
        k(    7) = (   0.2500000   0.2500000   0.2500000), wk =   0.0740741
        k(    8) = (   0.2500000   0.2500000   0.4166667), wk =   0.2222222
        k(    9) = (   0.2500000   0.4166667   0.4166667), wk =   0.2222222
        k(   10) = (   0.4166667   0.4166667   0.4166667), wk =   0.0740741

     Dense  grid:    13301 G-vectors     FFT dimensions: (  30,  30,  30)

     Estimated max dynamical RAM per process >      13.78 MB

     Initial potential from superposition of free atoms

     starting charge      27.9961, renormalised to      28.0000
     Starting wfcs are   28 randomized atomic wfcs

     total cpu time spent up to now is        1.5 secs

     per-process dynamical memory:    20.2 Mb

     Self-consistent Calculation

     iteration #  1     ecut=    20.00 Ry     beta= 0.70
     Davidson diagonalization with overlap
     ethr =  1.00E-02,  avg # of iterations =  2.0

     Threshold (ethr) on eigenvalues was too large:
     Diagonalizing with lowered threshold

     Davidson diagonalization with overlap
     ethr =  5.02E-04,  avg # of iterations =  4.0

     total cpu time spent up to now is        8.1 secs

     total energy              =     -54.83758602 Ry
     estimated scf accuracy    <       0.18109555 Ry

     iteration #  2     ecut=    20.00 Ry     beta= 0.70
     Davidson diagonalization with overlap
     ethr =  6.47E-04,  avg # of iterations =  2.1

     total cpu time spent up to now is       11.2 secs

     total energy              =     -54.85911137 Ry
     estimated scf accuracy    <       0.02552326 Ry

     iteration #  3     ecut=    20.00 Ry     beta= 0.70
     Davidson diagonalization with overlap
     ethr =  9.12E-05,  avg # of iterations =  2.4

     total cpu time spent up to now is       14.0 secs

     total energy              =     -54.86397948 Ry
     estimated scf accuracy    <       0.00134276 Ry

     iteration #  4     ecut=    20.00 Ry     beta= 0.70
     Davidson diagonalization with overlap
     ethr =  4.80E-06,  avg # of iterations =  3.8

     total cpu time spent up to now is       17.6 secs

     total energy              =     -54.86407506 Ry
     estimated scf accuracy    <       0.00030423 Ry

     iteration #  5     ecut=    20.00 Ry     beta= 0.70
     Davidson diagonalization with overlap
     ethr =  1.09E-06,  avg # of iterations =  4.7

     total cpu time spent up to now is       23.5 secs

     total energy              =     -54.86418914 Ry
     estimated scf accuracy    <       0.00004483 Ry

     iteration #  6     ecut=    20.00 Ry     beta= 0.70
     Davidson diagonalization with overlap
     ethr =  1.60E-07,  avg # of iterations =  4.5

     total cpu time spent up to now is       28.1 secs

     End of self-consistent calculation

          k = 0.0833 0.0833 0.0833 (  1686 PWs)   bands (ev):

    -6.5090  -3.4277  -3.4277  -2.6606  -2.0971  -2.0971   1.7478   1.7478
     1.8085   2.0198   2.6583   3.0723   3.0723   5.5487

          k = 0.0833 0.0833 0.2500 (  1681 PWs)   bands (ev):

    -6.2998  -4.2736  -3.3568  -2.6307  -2.0812  -1.1813   1.2972   1.4702
     1.8999   1.9775   2.4554   2.9372   2.9749   4.8238

          k = 0.0833 0.0833 0.4167 (  1668 PWs)   bands (ev):

    -5.9383  -5.0034  -3.2779  -2.5642  -2.0726  -0.4432   1.0006   1.0213
     1.7655   1.8022   2.5146   2.9624   3.1586   4.1879

          k = 0.0833 0.2500 0.2500 (  1664 PWs)   bands (ev):

    -6.0936  -4.3441  -3.9202  -2.7040  -1.6198  -0.9226   0.8277   1.3548
     1.6509   2.2318   2.4024   3.0780   3.1623   4.2076

          k = 0.0833 0.2500 0.4167 (  1661 PWs)   bands (ev):

    -5.7331  -4.8962  -3.9442  -2.7549  -1.4943  -0.5295   0.5240   1.0158
     1.7848   2.1952   2.5369   2.9825   3.1084   4.0861

          k = 0.0833 0.4167 0.4167 (  1666 PWs)   bands (ev):

    -5.3567  -4.8243  -4.5526  -2.9711  -0.9652  -0.5066  -0.0264   1.1006
     1.7295   1.8735   2.7574   3.1248   3.4046   3.9605

          k = 0.2500 0.2500 0.2500 (  1658 PWs)   bands (ev):

    -5.8934  -4.2615  -4.2615  -2.9293  -1.1883  -1.1883   0.3902   1.4588
     1.4588   2.5744   2.6065   3.2654   3.2654   4.0003

          k = 0.2500 0.2500 0.4167 (  1670 PWs)   bands (ev):

    -5.5412  -4.8001  -4.1686  -2.9332  -1.4526  -0.9056  -0.0989   1.4459
     2.1539   2.2934   2.7451   2.9876   3.2240   4.5215

          k = 0.2500 0.4167 0.4167 (  1667 PWs)   bands (ev):

    -5.1958  -4.7391  -4.5439  -3.0486  -1.3598  -1.0722  -0.7290   1.8214
     2.0384   2.4708   2.8988   3.2071   3.4616   4.9511

          k = 0.4167 0.4167 0.4167 (  1655 PWs)   bands (ev):

    -4.9264  -4.6432  -4.6432  -3.1491  -1.4955  -1.4955  -1.2805   1.3789
     3.0272   3.0272   3.3721   3.5081   3.5081   5.6127

     highest occupied level (ev):     5.6127

!    total energy              =     -54.86420169 Ry
     estimated scf accuracy    <       0.00000010 Ry

     The total energy is the sum of the following terms:
     one-electron contribution =      10.64890640 Ry
     hartree contribution      =       5.25458162 Ry
     xc contribution           =     -16.32760685 Ry
     ewald contribution        =     -54.44008286 Ry

     convergence has been achieved in   6 iterations

     Forces acting on atoms (cartesian axes, Ry/au):

     atom    1 type  1   force =    -0.00303756    0.00303756   -0.00303756
     atom    2 type  1   force =     0.00303756   -0.00303756   -0.00303756
     atom    3 type  1   force =    -0.00303756   -0.00303756    0.00303756
     atom    4 type  1   force =     0.00303756    0.00303756    0.00303756
     atom    5 type  1   force =     0.00000000    0.00000000    0.00000000
     atom    6 type  1   force =     0.00000000    0.00000000    0.00000000
     atom    7 type  1   force =     0.00000000    0.00000000    0.00000000

     Total force =     0.010522     Total SCF correction =     0.000175


     Computing stress (Cartesian axis) and pressure

          total   stress  (Ry/bohr**3)                   (kbar)     P=      -25.98
  -0.00017661   0.00000000   0.00000000          -25.98        0.00        0.00
   0.00000000  -0.00017661   0.00000000            0.00      -25.98        0.00
   0.00000000   0.00000000  -0.00017661            0.00        0.00      -25.98


     Writing all to output data dir ./Si8.save/

     init_run     :      8.76s CPU      1.49s WALL (       1 calls)
     electrons    :    153.87s CPU     26.64s WALL (       1 calls)
     forces       :      1.33s CPU      0.29s WALL (       1 calls)
     stress       :      3.04s CPU      0.58s WALL (       1 calls)

     Called by init_run:
     wfcinit      :      8.03s CPU      1.30s WALL (       1 calls)
     potinit      :      0.05s CPU      0.01s WALL (       1 calls)
     hinit0       :      0.67s CPU      0.18s WALL (       1 calls)

     Called by electrons:
     c_bands      :    141.85s CPU     24.90s WALL (       7 calls)
     sum_band     :     11.79s CPU      1.70s WALL (       7 calls)
     v_of_rho     :      0.16s CPU      0.03s WALL (       7 calls)
     mix_rho      :      0.03s CPU      0.01s WALL (       7 calls)

     Called by c_bands:
     init_us_2    :      2.13s CPU      0.54s WALL (     170 calls)
     init_us_2:cp :      2.12s CPU      0.54s WALL (     170 calls)
     cegterg      :    139.75s CPU     24.36s WALL (      70 calls)

     Called by *egterg:
     cdiaghg      :      0.76s CPU      0.16s WALL (     295 calls)
     h_psi        :    124.81s CPU     20.86s WALL (     315 calls)
     g_psi        :      3.21s CPU      0.74s WALL (     235 calls)

     Called by h_psi:
     h_psi:calbec :      9.66s CPU      1.32s WALL (     315 calls)
     vloc_psi     :    113.17s CPU     19.14s WALL (     315 calls)
     add_vuspsi   :      0.39s CPU      0.08s WALL (     315 calls)

     General routines
     calbec       :     10.88s CPU      1.56s WALL (     365 calls)
     fft          :      0.73s CPU      0.18s WALL (      78 calls)
     ffts         :      0.03s CPU      0.00s WALL (       7 calls)
     fftw         :    120.97s CPU     20.13s WALL (    7314 calls)

     Parallel routines

     PWSCF        :   2m47.48s CPU     29.11s WALL


   This run was terminated on:  10:29:50  10Feb2023            

=------------------------------------------------------------------------------=
   JOB DONE.
=------------------------------------------------------------------------------=
