
     Program PWSCF v.7.0 starts on 10Feb2023 at 10:17:16 

     This program is part of the open-source Quantum ESPRESSO suite
     for quantum simulation of materials; please cite
         "P. Giannozzi et al., J. Phys.:Condens. Matter 21 395502 (2009);
         "P. Giannozzi et al., J. Phys.:Condens. Matter 29 465901 (2017);
         "P. Giannozzi et al., J. Chem. Phys. 152 154105 (2020);
          URL http://www.quantum-espresso.org", 
     in publications or presentations arising from this work. More details at
     http://www.quantum-espresso.org/quote

     Parallel version (MPI & OpenMP), running on       8 processor cores
     Number of MPI processes:                 1
     Threads/MPI process:                     8

     MPI processes distributed on     1 nodes
     4861 MiB available memory on the printing compute node when the environment starts

     Reading input from single_vacancy.in

     Current dimensions of program PWSCF are:
     Max number of different atomic species (ntypx) = 10
     Max number of k-points (npk) =  40000
     Max angular momentum in pseudopotentials (lmaxx) =  4
     Message from routine setup:
     using ibrav=0 with symmetry is DISCOURAGED, use correct ibrav instead

     Subspace diagonalization in iterative solution of the eigenvalue problem:
     a serial algorithm will be used


     G-vector sticks info
     --------------------
     sticks:   dense  smooth     PW     G-vecs:    dense   smooth      PW
     Sum         673     673    213                13301    13301    2205

     Using Slab Decomposition



     bravais-lattice index     =            0
     lattice parameter (alat)  =      10.3330  a.u.
     unit-cell volume          =    1103.2636 (a.u.)^3
     number of atoms/cell      =            7
     number of atomic types    =            1
     number of electrons       =        28.00
     number of Kohn-Sham states=           14
     kinetic-energy cutoff     =      20.0000  Ry
     charge density cutoff     =      80.0000  Ry
     scf convergence threshold =      1.0E-08
     mixing beta               =       0.7000
     number of iterations used =            8  plain     mixing
     energy convergence thresh.=      1.0E-04
     force convergence thresh. =      1.0E-03
     Exchange-correlation= SLA  PW   PBE  PBE
                           (   1   4   3   4   0   0   0)
     nstep                     =           50


     celldm(1)=  10.333000  celldm(2)=   0.000000  celldm(3)=   0.000000
     celldm(4)=   0.000000  celldm(5)=   0.000000  celldm(6)=   0.000000

     crystal axes: (cart. coord. in units of alat)
               a(1) = (   1.000000   0.000000   0.000000 )  
               a(2) = (   0.000000   1.000000   0.000000 )  
               a(3) = (   0.000000   0.000000   1.000000 )  

     reciprocal axes: (cart. coord. in units 2 pi/alat)
               b(1) = (  1.000000  0.000000  0.000000 )  
               b(2) = (  0.000000  1.000000  0.000000 )  
               b(3) = (  0.000000  0.000000  1.000000 )  


     PseudoPot. # 1 for Si read from file:
     ./Si.pbe-rrkj.UPF
     MD5 check sum: 8af8e7039d270e0118f3b3651cf51d3d
     Pseudo is Norm-conserving, Zval =  4.0
     Generated by new atomic code, or converted to UPF format
     Using radial grid of  883 points,  3 beta functions with: 
                l(1) =   0
                l(2) =   0
                l(3) =   1

     atomic species   valence    mass     pseudopotential
        Si             4.00    28.08600     Si( 1.00)

     24 Sym. Ops. (no inversion) found (18 have fractional translation)



   Cartesian axes

     site n.     atom                  positions (alat units)
         1           Si  tau(   1) = (   0.5000000   0.5000000   0.0000000  )
         2           Si  tau(   2) = (   0.0000000   0.0000000   0.0000000  )
         3           Si  tau(   3) = (   0.5000000   0.0000000   0.5000000  )
         4           Si  tau(   4) = (   0.0000000   0.5000000   0.5000000  )
         5           Si  tau(   5) = (   0.7500000   0.7500000   0.2500000  )
         6           Si  tau(   6) = (   0.2500000   0.2500000   0.2500000  )
         7           Si  tau(   7) = (   0.7500000   0.2500000   0.7500000  )

     number of k points=    10
                       cart. coord. in units 2pi/alat
        k(    1) = (   0.0833333   0.0833333   0.0833333), wk =   0.0740741
        k(    2) = (   0.0833333   0.0833333   0.2500000), wk =   0.2222222
        k(    3) = (   0.0833333   0.0833333   0.4166667), wk =   0.2222222
        k(    4) = (   0.0833333   0.2500000   0.2500000), wk =   0.2222222
        k(    5) = (   0.0833333   0.2500000   0.4166667), wk =   0.4444444
        k(    6) = (   0.0833333   0.4166667   0.4166667), wk =   0.2222222
        k(    7) = (   0.2500000   0.2500000   0.2500000), wk =   0.0740741
        k(    8) = (   0.2500000   0.2500000   0.4166667), wk =   0.2222222
        k(    9) = (   0.2500000   0.4166667   0.4166667), wk =   0.2222222
        k(   10) = (   0.4166667   0.4166667   0.4166667), wk =   0.0740741

     Dense  grid:    13301 G-vectors     FFT dimensions: (  30,  30,  30)

     Estimated max dynamical RAM per process >      13.78 MB

     Initial potential from superposition of free atoms

     starting charge      27.9961, renormalised to      28.0000
     Starting wfcs are   28 randomized atomic wfcs

     total cpu time spent up to now is        1.6 secs

     per-process dynamical memory:    20.3 Mb

     Self-consistent Calculation

     iteration #  1     ecut=    20.00 Ry     beta= 0.70
     Davidson diagonalization with overlap
     ethr =  1.00E-02,  avg # of iterations =  2.0

     Threshold (ethr) on eigenvalues was too large:
     Diagonalizing with lowered threshold

     Davidson diagonalization with overlap
     ethr =  5.02E-04,  avg # of iterations =  4.0

     total cpu time spent up to now is        8.6 secs

     total energy              =     -54.83758602 Ry
     estimated scf accuracy    <       0.18109555 Ry

     iteration #  2     ecut=    20.00 Ry     beta= 0.70
     Davidson diagonalization with overlap
     ethr =  6.47E-04,  avg # of iterations =  2.1

     total cpu time spent up to now is       11.7 secs

     total energy              =     -54.85911137 Ry
     estimated scf accuracy    <       0.02552326 Ry

     iteration #  3     ecut=    20.00 Ry     beta= 0.70
     Davidson diagonalization with overlap
     ethr =  9.12E-05,  avg # of iterations =  2.4

     total cpu time spent up to now is       15.3 secs

     total energy              =     -54.86397948 Ry
     estimated scf accuracy    <       0.00134276 Ry

     iteration #  4     ecut=    20.00 Ry     beta= 0.70
     Davidson diagonalization with overlap
     ethr =  4.80E-06,  avg # of iterations =  3.8

     total cpu time spent up to now is       19.0 secs

     total energy              =     -54.86407506 Ry
     estimated scf accuracy    <       0.00030423 Ry

     iteration #  5     ecut=    20.00 Ry     beta= 0.70
     Davidson diagonalization with overlap
     ethr =  1.09E-06,  avg # of iterations =  4.7

     total cpu time spent up to now is       23.0 secs

     total energy              =     -54.86418914 Ry
     estimated scf accuracy    <       0.00004483 Ry

     iteration #  6     ecut=    20.00 Ry     beta= 0.70
     Davidson diagonalization with overlap
     ethr =  1.60E-07,  avg # of iterations =  4.5

     total cpu time spent up to now is       26.8 secs

     total energy              =     -54.86420172 Ry
     estimated scf accuracy    <       0.00000010 Ry

     iteration #  7     ecut=    20.00 Ry     beta= 0.70
     Davidson diagonalization with overlap
     ethr =  3.47E-10,  avg # of iterations = 14.1

     total cpu time spent up to now is       38.5 secs

     total energy              =     -54.86420322 Ry
     estimated scf accuracy    <       0.00000027 Ry

     iteration #  8     ecut=    20.00 Ry     beta= 0.70
     Davidson diagonalization with overlap
     ethr =  3.47E-10,  avg # of iterations =  4.6

     total cpu time spent up to now is       43.2 secs

     total energy              =     -54.86420331 Ry
     estimated scf accuracy    <       0.00000007 Ry

     iteration #  9     ecut=    20.00 Ry     beta= 0.70
     Davidson diagonalization with overlap
     ethr =  2.54E-10,  avg # of iterations =  2.1

     total cpu time spent up to now is       46.4 secs

     End of self-consistent calculation

          k = 0.0833 0.0833 0.0833 (  1686 PWs)   bands (ev):

    -6.5088  -3.4275  -3.4275  -2.6605  -2.0970  -2.0970   1.7478   1.7478
     1.8080   2.0198   2.6585   3.0725   3.0725   5.5482

          k = 0.0833 0.0833 0.2500 (  1681 PWs)   bands (ev):

    -6.2996  -4.2734  -3.3566  -2.6306  -2.0811  -1.1812   1.2973   1.4703
     1.8998   1.9775   2.4554   2.9373   2.9751   4.8234

          k = 0.0833 0.0833 0.4167 (  1668 PWs)   bands (ev):

    -5.9381  -5.0032  -3.2777  -2.5641  -2.0725  -0.4433   1.0007   1.0216
     1.7656   1.8023   2.5148   2.9626   3.1584   4.1876

          k = 0.0833 0.2500 0.2500 (  1664 PWs)   bands (ev):

    -6.0934  -4.3439  -3.9200  -2.7039  -1.6197  -0.9226   0.8278   1.3548
     1.6509   2.2318   2.4024   3.0780   3.1624   4.2071

          k = 0.0833 0.2500 0.4167 (  1661 PWs)   bands (ev):

    -5.7328  -4.8960  -3.9440  -2.7549  -1.4942  -0.5296   0.5243   1.0159
     1.7848   2.1954   2.5370   2.9826   3.1083   4.0857

          k = 0.0833 0.4167 0.4167 (  1666 PWs)   bands (ev):

    -5.3565  -4.8241  -4.5523  -2.9712  -0.9650  -0.5066  -0.0262   1.1008
     1.7295   1.8735   2.7571   3.1251   3.4047   3.9600

          k = 0.2500 0.2500 0.2500 (  1658 PWs)   bands (ev):

    -5.8931  -4.2613  -4.2613  -2.9292  -1.1883  -1.1883   0.3903   1.4590
     1.4590   2.5744   2.6061   3.2656   3.2656   3.9999

          k = 0.2500 0.2500 0.4167 (  1670 PWs)   bands (ev):

    -5.5410  -4.8000  -4.1684  -2.9331  -1.4526  -0.9057  -0.0987   1.4461
     2.1540   2.2931   2.7452   2.9878   3.2242   4.5211

          k = 0.2500 0.4167 0.4167 (  1667 PWs)   bands (ev):

    -5.1956  -4.7389  -4.5437  -3.0486  -1.3597  -1.0722  -0.7289   1.8211
     2.0386   2.4708   2.8990   3.2072   3.4618   4.9506

          k = 0.4167 0.4167 0.4167 (  1655 PWs)   bands (ev):

    -4.9262  -4.6430  -4.6430  -3.1489  -1.4956  -1.4956  -1.2804   1.3784
     3.0274   3.0274   3.3721   3.5083   3.5083   5.6124

     highest occupied level (ev):     5.6124

!    total energy              =     -54.86420332 Ry
     estimated scf accuracy    <          2.4E-09 Ry

     The total energy is the sum of the following terms:
     one-electron contribution =      10.64842944 Ry
     hartree contribution      =       5.25503140 Ry
     xc contribution           =     -16.32758131 Ry
     ewald contribution        =     -54.44008286 Ry

     convergence has been achieved in   9 iterations

     Forces acting on atoms (cartesian axes, Ry/au):

     atom    1 type  1   force =    -0.00290705    0.00290705   -0.00290705
     atom    2 type  1   force =     0.00290705   -0.00290705   -0.00290705
     atom    3 type  1   force =    -0.00290705   -0.00290705    0.00290705
     atom    4 type  1   force =     0.00290705    0.00290705    0.00290705
     atom    5 type  1   force =     0.00000000    0.00000000    0.00000000
     atom    6 type  1   force =     0.00000000    0.00000000    0.00000000
     atom    7 type  1   force =     0.00000000    0.00000000    0.00000000

     Total force =     0.010070     Total SCF correction =     0.000062


     Computing stress (Cartesian axis) and pressure

          total   stress  (Ry/bohr**3)                   (kbar)     P=      -25.99
  -0.00017667   0.00000000   0.00000000          -25.99        0.00        0.00
   0.00000000  -0.00017667   0.00000000            0.00      -25.99        0.00
   0.00000000   0.00000000  -0.00017667            0.00        0.00      -25.99


     BFGS Geometry Optimization
     Energy error            =      0.0E+00 Ry
     Gradient error          =      2.9E-03 Ry/Bohr

     number of scf cycles    =   1
     number of bfgs steps    =   0

     energy             new  =     -54.8642033190 Ry

     new trust radius        =       0.0050351658 bohr
     new conv_thr            =       0.0000000100 Ry


ATOMIC_POSITIONS (angstrom)
Si            2.7324557011        2.7355323949       -0.0015383469
Si            0.0015383469       -0.0015383469       -0.0015383469
Si            2.7324557011       -0.0015383469        2.7355323949
Si            0.0015383469        2.7355323949        2.7355323949
Si            4.1009910720        4.1009910720        1.3669970240
Si            1.3669970240        1.3669970240        1.3669970240
Si            4.1009910720        1.3669970240        4.1009910720



     Writing config-only to output data dir ./Si8.save/
     NEW-OLD atomic charge density approx. for the potential

     total cpu time spent up to now is       46.9 secs

     per-process dynamical memory:    21.1 Mb

     Self-consistent Calculation

     iteration #  1     ecut=    20.00 Ry     beta= 0.70
     Davidson diagonalization with overlap
     ethr =  1.00E-06,  avg # of iterations =  3.0

     Threshold (ethr) on eigenvalues was too large:
     Diagonalizing with lowered threshold

     Davidson diagonalization with overlap
     ethr =  2.11E-08,  avg # of iterations =  5.5

     total cpu time spent up to now is       55.2 secs

     total energy              =     -54.86429845 Ry
     estimated scf accuracy    <       0.00000085 Ry

     iteration #  2     ecut=    20.00 Ry     beta= 0.70
     Davidson diagonalization with overlap
     ethr =  3.05E-09,  avg # of iterations =  4.4

     total cpu time spent up to now is       59.0 secs

     total energy              =     -54.86429862 Ry
     estimated scf accuracy    <       0.00000012 Ry

     iteration #  3     ecut=    20.00 Ry     beta= 0.70
     Davidson diagonalization with overlap
     ethr =  4.34E-10,  avg # of iterations =  4.4

     total cpu time spent up to now is       62.6 secs

     total energy              =     -54.86429866 Ry
     estimated scf accuracy    <       0.00000002 Ry

     iteration #  4     ecut=    20.00 Ry     beta= 0.70
     Davidson diagonalization with overlap
     ethr =  7.05E-11,  avg # of iterations =  4.9

     total cpu time spent up to now is       65.8 secs

     End of self-consistent calculation

          k = 0.0833 0.0833 0.0833 (  1686 PWs)   bands (ev):

    -6.5034  -3.4226  -3.4226  -2.6570  -2.0929  -2.0929   1.7507   1.7507
     1.8001   2.0228   2.6662   3.0794   3.0794   5.5437

          k = 0.0833 0.0833 0.2500 (  1681 PWs)   bands (ev):

    -6.2941  -4.2688  -3.3514  -2.6272  -2.0771  -1.1780   1.2997   1.4735
     1.8995   1.9805   2.4583   2.9425   2.9818   4.8174

          k = 0.0833 0.0833 0.4167 (  1668 PWs)   bands (ev):

    -5.9320  -4.9993  -3.2723  -2.5607  -2.0687  -0.4427   1.0028   1.0289
     1.7700   1.8054   2.5188   2.9695   3.1575   4.1813

          k = 0.0833 0.2500 0.2500 (  1664 PWs)   bands (ev):

    -6.0878  -4.3391  -3.9150  -2.7010  -1.6162  -0.9194   0.8320   1.3578
     1.6538   2.2353   2.4043   3.0812   3.1685   4.1993

          k = 0.0833 0.2500 0.4167 (  1661 PWs)   bands (ev):

    -5.7267  -4.8917  -3.9385  -2.7529  -1.4906  -0.5280   0.5309   1.0199
     1.7858   2.2008   2.5403   2.9869   3.1089   4.0785

          k = 0.0833 0.4167 0.4167 (  1666 PWs)   bands (ev):

    -5.3502  -4.8193  -4.5465  -2.9710  -0.9609  -0.5045  -0.0205   1.1074
     1.7306   1.8757   2.7530   3.1326   3.4098   3.9518

          k = 0.2500 0.2500 0.2500 (  1658 PWs)   bands (ev):

    -5.8874  -4.2562  -4.2562  -2.9259  -1.1860  -1.1860   0.3948   1.4631
     1.4631   2.5773   2.6018   3.2725   3.2725   3.9930

          k = 0.2500 0.2500 0.4167 (  1670 PWs)   bands (ev):

    -5.5349  -4.7952  -4.1630  -2.9296  -1.4511  -0.9043  -0.0935   1.4510
     2.1569   2.2876   2.7482   2.9949   3.2311   4.5164

          k = 0.2500 0.4167 0.4167 (  1667 PWs)   bands (ev):

    -5.1895  -4.7338  -4.5380  -3.0453  -1.3578  -1.0711  -0.7251   1.8156
     2.0431   2.4737   2.9045   3.2129   3.4686   4.9459

          k = 0.4167 0.4167 0.4167 (  1655 PWs)   bands (ev):

    -4.9204  -4.6376  -4.6376  -3.1423  -1.4951  -1.4951  -1.2784   1.3703
     3.0337   3.0337   3.3750   3.5155   3.5155   5.6092

     highest occupied level (ev):     5.6092

!    total energy              =     -54.86429867 Ry
     estimated scf accuracy    <          8.7E-10 Ry

     The total energy is the sum of the following terms:
     one-electron contribution =      10.68922649 Ry
     hartree contribution      =       5.23607473 Ry
     xc contribution           =     -16.32489439 Ry
     ewald contribution        =     -54.46470550 Ry

     convergence has been achieved in   4 iterations

     Forces acting on atoms (cartesian axes, Ry/au):

     atom    1 type  1   force =    -0.00256374    0.00256374   -0.00256374
     atom    2 type  1   force =     0.00256374   -0.00256374   -0.00256374
     atom    3 type  1   force =    -0.00256374   -0.00256374    0.00256374
     atom    4 type  1   force =     0.00256374    0.00256374    0.00256374
     atom    5 type  1   force =     0.00000000    0.00000000    0.00000000
     atom    6 type  1   force =     0.00000000    0.00000000    0.00000000
     atom    7 type  1   force =     0.00000000    0.00000000    0.00000000

     Total force =     0.008881     Total SCF correction =     0.000024


     Computing stress (Cartesian axis) and pressure

          total   stress  (Ry/bohr**3)                   (kbar)     P=      -26.53
  -0.00018037   0.00000000   0.00000000          -26.53        0.00        0.00
   0.00000000  -0.00018037   0.00000000            0.00      -26.53        0.00
   0.00000000   0.00000000  -0.00018037            0.00        0.00      -26.53

     Energy error            =      9.5E-05 Ry
     Gradient error          =      2.6E-03 Ry/Bohr

     number of scf cycles    =   2
     number of bfgs steps    =   1

     energy             old  =     -54.8642033190 Ry
     energy             new  =     -54.8642986663 Ry

     CASE: energy            _new < energy            _old


     WARNING: bfgs curvature condition failed, Theta= 0.907
     new trust radius        =       0.0055386824 bohr
     new conv_thr            =            1.0E-10 Ry


ATOMIC_POSITIONS (angstrom)
Si            2.7307635195        2.7372245765       -0.0032305285
Si            0.0032305285       -0.0032305285       -0.0032305285
Si            2.7307635195       -0.0032305285        2.7372245765
Si            0.0032305285        2.7372245765        2.7372245765
Si            4.1009910720        4.1009910720        1.3669970240
Si            1.3669970240        1.3669970240        1.3669970240
Si            4.1009910720        1.3669970240        4.1009910720



     Writing config-only to output data dir ./Si8.save/
     NEW-OLD atomic charge density approx. for the potential

     total cpu time spent up to now is       66.5 secs

     per-process dynamical memory:    21.1 Mb

     Self-consistent Calculation

     iteration #  1     ecut=    20.00 Ry     beta= 0.70
     Davidson diagonalization with overlap
     ethr =  1.00E-06,  avg # of iterations =  3.0

     Threshold (ethr) on eigenvalues was too large:
     Diagonalizing with lowered threshold

     Davidson diagonalization with overlap
     ethr =  2.39E-08,  avg # of iterations =  5.9

     total cpu time spent up to now is       75.4 secs

     total energy              =     -54.86438986 Ry
     estimated scf accuracy    <       0.00000103 Ry

     iteration #  2     ecut=    20.00 Ry     beta= 0.70
     Davidson diagonalization with overlap
     ethr =  3.67E-09,  avg # of iterations =  3.3

     total cpu time spent up to now is       78.7 secs

     total energy              =     -54.86439001 Ry
     estimated scf accuracy    <       0.00000007 Ry

     iteration #  3     ecut=    20.00 Ry     beta= 0.70
     Davidson diagonalization with overlap
     ethr =  2.55E-10,  avg # of iterations =  5.2

     total cpu time spent up to now is       83.8 secs

     total energy              =     -54.86439005 Ry
     estimated scf accuracy    <          6.0E-09 Ry

     iteration #  4     ecut=    20.00 Ry     beta= 0.70
     Davidson diagonalization with overlap
     ethr =  2.15E-11,  avg # of iterations =  5.1

     total cpu time spent up to now is       88.4 secs

     total energy              =     -54.86439005 Ry
     estimated scf accuracy    <          9.6E-10 Ry

     iteration #  5     ecut=    20.00 Ry     beta= 0.70
     Davidson diagonalization with overlap
     ethr =  3.41E-12,  avg # of iterations =  4.5

     total cpu time spent up to now is       92.7 secs

     End of self-consistent calculation

          k = 0.0833 0.0833 0.0833 (  1686 PWs)   bands (ev):

    -6.4975  -3.4171  -3.4171  -2.6532  -2.0883  -2.0883   1.7539   1.7539
     1.7914   2.0260   2.6748   3.0871   3.0871   5.5388

          k = 0.0833 0.0833 0.2500 (  1681 PWs)   bands (ev):

    -6.2880  -4.2637  -3.3457  -2.6234  -2.0727  -1.1743   1.3024   1.4771
     1.8989   1.9839   2.4616   2.9483   2.9892   4.8108

          k = 0.0833 0.0833 0.4167 (  1668 PWs)   bands (ev):

    -5.9252  -4.9950  -3.2663  -2.5569  -2.0645  -0.4422   1.0052   1.0370
     1.7748   1.8089   2.5232   2.9771   3.1565   4.1745

          k = 0.0833 0.2500 0.2500 (  1664 PWs)   bands (ev):

    -6.0816  -4.3337  -3.9094  -2.6978  -1.6124  -0.9159   0.8366   1.3611
     1.6570   2.2391   2.4063   3.0848   3.1752   4.1908

          k = 0.0833 0.2500 0.4167 (  1661 PWs)   bands (ev):

    -5.7199  -4.8868  -3.9323  -2.7507  -1.4867  -0.5262   0.5382   1.0242
     1.7868   2.2067   2.5438   2.9916   3.1099   4.0707

          k = 0.0833 0.4167 0.4167 (  1666 PWs)   bands (ev):

    -5.3433  -4.8139  -4.5401  -2.9709  -0.9563  -0.5021  -0.0143   1.1147
     1.7318   1.8780   2.7486   3.1408   3.4156   3.9428

          k = 0.2500 0.2500 0.2500 (  1658 PWs)   bands (ev):

    -5.8811  -4.2506  -4.2506  -2.9223  -1.1835  -1.1835   0.3998   1.4677
     1.4677   2.5806   2.5972   3.2802   3.2802   3.9854

          k = 0.2500 0.2500 0.4167 (  1670 PWs)   bands (ev):

    -5.5281  -4.7900  -4.1570  -2.9258  -1.4494  -0.9027  -0.0877   1.4564
     2.1598   2.2818   2.7516   3.0028   3.2388   4.5113

          k = 0.2500 0.4167 0.4167 (  1667 PWs)   bands (ev):

    -5.1828  -4.7282  -4.5318  -3.0418  -1.3556  -1.0698  -0.7208   1.8094
     2.0483   2.4768   2.9106   3.2191   3.4762   4.9406

          k = 0.4167 0.4167 0.4167 (  1655 PWs)   bands (ev):

    -4.9139  -4.6316  -4.6316  -3.1350  -1.4946  -1.4946  -1.2761   1.3614
     3.0407   3.0407   3.3782   3.5235   3.5235   5.6058

     highest occupied level (ev):     5.6058

!    total energy              =     -54.86439005 Ry
     estimated scf accuracy    <          6.2E-11 Ry

     The total energy is the sum of the following terms:
     one-electron contribution =      10.73412241 Ry
     hartree contribution      =       5.21510547 Ry
     xc contribution           =     -16.32191417 Ry
     ewald contribution        =     -54.49170376 Ry

     convergence has been achieved in   5 iterations

     Forces acting on atoms (cartesian axes, Ry/au):

     atom    1 type  1   force =    -0.00219743    0.00219743   -0.00219743
     atom    2 type  1   force =     0.00219743   -0.00219743   -0.00219743
     atom    3 type  1   force =    -0.00219743   -0.00219743    0.00219743
     atom    4 type  1   force =     0.00219743    0.00219743    0.00219743
     atom    5 type  1   force =     0.00000000    0.00000000    0.00000000
     atom    6 type  1   force =     0.00000000    0.00000000    0.00000000
     atom    7 type  1   force =     0.00000000    0.00000000    0.00000000

     Total force =     0.007612     Total SCF correction =     0.000004


     Computing stress (Cartesian axis) and pressure

          total   stress  (Ry/bohr**3)                   (kbar)     P=      -27.14
  -0.00018447   0.00000000   0.00000000          -27.14        0.00        0.00
   0.00000000  -0.00018447   0.00000000            0.00      -27.14        0.00
   0.00000000   0.00000000  -0.00018447            0.00        0.00      -27.14

     Energy error            =      9.1E-05 Ry
     Gradient error          =      2.2E-03 Ry/Bohr

     number of scf cycles    =   3
     number of bfgs steps    =   2

     energy             old  =     -54.8642986663 Ry
     energy             new  =     -54.8643900532 Ry

     CASE: energy            _new < energy            _old

     new trust radius        =       0.0083080236 bohr
     new conv_thr            =            1.0E-10 Ry


ATOMIC_POSITIONS (angstrom)
Si            2.7282252471        2.7397628489       -0.0057688009
Si            0.0057688009       -0.0057688009       -0.0057688009
Si            2.7282252471       -0.0057688009        2.7397628489
Si            0.0057688009        2.7397628489        2.7397628489
Si            4.1009910720        4.1009910720        1.3669970240
Si            1.3669970240        1.3669970240        1.3669970240
Si            4.1009910720        1.3669970240        4.1009910720



     Writing config-only to output data dir ./Si8.save/
     NEW-OLD atomic charge density approx. for the potential

     total cpu time spent up to now is       93.5 secs

     per-process dynamical memory:    21.1 Mb

     Self-consistent Calculation

     iteration #  1     ecut=    20.00 Ry     beta= 0.70
     Davidson diagonalization with overlap
     ethr =  1.00E-06,  avg # of iterations =  4.6

     Threshold (ethr) on eigenvalues was too large:
     Diagonalizing with lowered threshold

     Davidson diagonalization with overlap
     ethr =  2.96E-08,  avg # of iterations =  5.6

     total cpu time spent up to now is      104.7 secs

     total energy              =     -54.86450021 Ry
     estimated scf accuracy    <       0.00000238 Ry

     iteration #  2     ecut=    20.00 Ry     beta= 0.70
     Davidson diagonalization with overlap
     ethr =  8.50E-09,  avg # of iterations =  2.4

     total cpu time spent up to now is      108.0 secs

     total energy              =     -54.86450047 Ry
     estimated scf accuracy    <       0.00000014 Ry

     iteration #  3     ecut=    20.00 Ry     beta= 0.70
     Davidson diagonalization with overlap
     ethr =  5.06E-10,  avg # of iterations =  6.7

     total cpu time spent up to now is      112.9 secs

     total energy              =     -54.86450055 Ry
     estimated scf accuracy    <          7.8E-09 Ry

     iteration #  4     ecut=    20.00 Ry     beta= 0.70
     Davidson diagonalization with overlap
     ethr =  2.77E-11,  avg # of iterations =  5.5

     total cpu time spent up to now is      117.9 secs

     total energy              =     -54.86450056 Ry
     estimated scf accuracy    <          1.8E-09 Ry

     iteration #  5     ecut=    20.00 Ry     beta= 0.70
     Davidson diagonalization with overlap
     ethr =  6.43E-12,  avg # of iterations =  3.3

     total cpu time spent up to now is      121.9 secs

     total energy              =     -54.86450056 Ry
     estimated scf accuracy    <          1.3E-10 Ry

     iteration #  6     ecut=    20.00 Ry     beta= 0.70
     Davidson diagonalization with overlap
     ethr =  4.69E-13,  avg # of iterations =  5.9

     total cpu time spent up to now is      126.8 secs

     End of self-consistent calculation

          k = 0.0833 0.0833 0.0833 (  1686 PWs)   bands (ev):

    -6.4888  -3.4089  -3.4089  -2.6474  -2.0815  -2.0815   1.7587   1.7587
     1.7781   2.0309   2.6875   3.0985   3.0985   5.5314

          k = 0.0833 0.0833 0.2500 (  1681 PWs)   bands (ev):

    -6.2790  -4.2561  -3.3372  -2.6177  -2.0660  -1.1689   1.3064   1.4822
     1.8978   1.9889   2.4668   2.9569   3.0004   4.8010

          k = 0.0833 0.0833 0.4167 (  1668 PWs)   bands (ev):

    -5.9151  -4.9886  -3.2573  -2.5512  -2.0581  -0.4414   1.0087   1.0492
     1.7819   1.8140   2.5299   2.9886   3.1552   4.1642

          k = 0.0833 0.2500 0.2500 (  1664 PWs)   bands (ev):

    -6.0723  -4.3256  -3.9011  -2.6931  -1.6066  -0.9106   0.8435   1.3657
     1.6618   2.2449   2.4095   3.0903   3.1853   4.1780

          k = 0.0833 0.2500 0.4167 (  1661 PWs)   bands (ev):

    -5.7098  -4.8796  -3.9231  -2.7474  -1.4808  -0.5235   0.5492   1.0306
     1.7884   2.2156   2.5491   2.9981   3.1119   4.0591

          k = 0.0833 0.4167 0.4167 (  1666 PWs)   bands (ev):

    -5.3330  -4.8058  -4.5304  -2.9707  -0.9494  -0.4985  -0.0048   1.1254
     1.7336   1.8816   2.7419   3.1528   3.4246   3.9295

          k = 0.2500 0.2500 0.2500 (  1658 PWs)   bands (ev):

    -5.8717  -4.2422  -4.2422  -2.9169  -1.1797  -1.1797   0.4072   1.4745
     1.4745   2.5855   2.5901   3.2917   3.2917   3.9739

          k = 0.2500 0.2500 0.4167 (  1670 PWs)   bands (ev):

    -5.5181  -4.7822  -4.1481  -2.9202  -1.4469  -0.9004  -0.0790   1.4645
     2.1638   2.2734   2.7568   3.0148   3.2503   4.5035

          k = 0.2500 0.4167 0.4167 (  1667 PWs)   bands (ev):

    -5.1727  -4.7197  -4.5225  -3.0366  -1.3524  -1.0679  -0.7144   1.7997
     2.0564   2.4815   2.9199   3.2282   3.4879   4.9327

          k = 0.4167 0.4167 0.4167 (  1655 PWs)   bands (ev):

    -4.9043  -4.6226  -4.6226  -3.1243  -1.4937  -1.4937  -1.2727   1.3480
     3.0509   3.0509   3.3831   3.5357   3.5357   5.6006

     highest occupied level (ev):     5.6006

!    total energy              =     -54.86450056 Ry
     estimated scf accuracy    <          3.5E-11 Ry

     The total energy is the sum of the following terms:
     one-electron contribution =      10.80112173 Ry
     hartree contribution      =       5.18385010 Ry
     xc contribution           =     -16.31744217 Ry
     ewald contribution        =     -54.53203022 Ry

     convergence has been achieved in   6 iterations

     Forces acting on atoms (cartesian axes, Ry/au):

     atom    1 type  1   force =    -0.00164246    0.00164246   -0.00164246
     atom    2 type  1   force =     0.00164246   -0.00164246   -0.00164246
     atom    3 type  1   force =    -0.00164246   -0.00164246    0.00164246
     atom    4 type  1   force =     0.00164246    0.00164246    0.00164246
     atom    5 type  1   force =     0.00000000    0.00000000    0.00000000
     atom    6 type  1   force =     0.00000000    0.00000000    0.00000000
     atom    7 type  1   force =     0.00000000    0.00000000    0.00000000

     Total force =     0.005690     Total SCF correction =     0.000003


     Computing stress (Cartesian axis) and pressure

          total   stress  (Ry/bohr**3)                   (kbar)     P=      -28.04
  -0.00019062   0.00000000   0.00000000          -28.04        0.00        0.00
   0.00000000  -0.00019062   0.00000000            0.00      -28.04        0.00
   0.00000000   0.00000000  -0.00019062            0.00        0.00      -28.04

     Energy error            =      1.1E-04 Ry
     Gradient error          =      1.6E-03 Ry/Bohr

     number of scf cycles    =   4
     number of bfgs steps    =   3

     energy             old  =     -54.8643900532 Ry
     energy             new  =     -54.8645005586 Ry

     CASE: energy            _new < energy            _old

     new trust radius        =       0.0124620354 bohr
     new conv_thr            =       0.0000000001 Ry


ATOMIC_POSITIONS (angstrom)
Si            2.7244178385        2.7435702575       -0.0095762095
Si            0.0095762095       -0.0095762095       -0.0095762095
Si            2.7244178385       -0.0095762095        2.7435702575
Si            0.0095762095        2.7435702575        2.7435702575
Si            4.1009910720        4.1009910720        1.3669970240
Si            1.3669970240        1.3669970240        1.3669970240
Si            4.1009910720        1.3669970240        4.1009910720



     Writing config-only to output data dir ./Si8.save/
     NEW-OLD atomic charge density approx. for the potential

     total cpu time spent up to now is      127.3 secs

     per-process dynamical memory:    21.1 Mb

     Self-consistent Calculation

     iteration #  1     ecut=    20.00 Ry     beta= 0.70
     Davidson diagonalization with overlap
     ethr =  1.00E-06,  avg # of iterations =  5.1

     Threshold (ethr) on eigenvalues was too large:
     Diagonalizing with lowered threshold

     Davidson diagonalization with overlap
     ethr =  2.31E-08,  avg # of iterations =  6.2

     total cpu time spent up to now is      138.7 secs

     total energy              =     -54.86460583 Ry
     estimated scf accuracy    <       0.00000553 Ry

     iteration #  2     ecut=    20.00 Ry     beta= 0.70
     Davidson diagonalization with overlap
     ethr =  1.98E-08,  avg # of iterations =  1.4

     total cpu time spent up to now is      141.0 secs

     total energy              =     -54.86460620 Ry
     estimated scf accuracy    <       0.00000031 Ry

     iteration #  3     ecut=    20.00 Ry     beta= 0.70
     Davidson diagonalization with overlap
     ethr =  1.11E-09,  avg # of iterations =  5.6

     total cpu time spent up to now is      145.5 secs

     total energy              =     -54.86460634 Ry
     estimated scf accuracy    <       0.00000002 Ry

     iteration #  4     ecut=    20.00 Ry     beta= 0.70
     Davidson diagonalization with overlap
     ethr =  8.27E-11,  avg # of iterations =  5.0

     total cpu time spent up to now is      150.3 secs

     total energy              =     -54.86460635 Ry
     estimated scf accuracy    <          4.7E-09 Ry

     iteration #  5     ecut=    20.00 Ry     beta= 0.70
     Davidson diagonalization with overlap
     ethr =  1.66E-11,  avg # of iterations =  4.3

     total cpu time spent up to now is      154.5 secs

     total energy              =     -54.86460635 Ry
     estimated scf accuracy    <          6.4E-10 Ry

     iteration #  6     ecut=    20.00 Ry     beta= 0.70
     Davidson diagonalization with overlap
     ethr =  2.29E-12,  avg # of iterations =  5.5

     total cpu time spent up to now is      160.8 secs

     End of self-consistent calculation

          k = 0.0833 0.0833 0.0833 (  1686 PWs)   bands (ev):

    -6.4757  -3.3966  -3.3966  -2.6388  -2.0713  -2.0713   1.7577   1.7660
     1.7660   2.0384   2.7065   3.1155   3.1155   5.5204

          k = 0.0833 0.0833 0.2500 (  1681 PWs)   bands (ev):

    -6.2654  -4.2446  -3.3244  -2.6092  -2.0561  -1.1608   1.3124   1.4896
     1.8955   1.9966   2.4752   2.9700   3.0171   4.7863

          k = 0.0833 0.0833 0.4167 (  1668 PWs)   bands (ev):

    -5.8999  -4.9789  -3.2439  -2.5426  -2.0486  -0.4403   1.0140   1.0673
     1.7923   1.8219   2.5398   3.0059   3.1533   4.1488

          k = 0.0833 0.2500 0.2500 (  1664 PWs)   bands (ev):

    -6.0585  -4.3135  -3.8886  -2.6860  -1.5979  -0.9026   0.8537   1.3723
     1.6689   2.2536   2.4141   3.0988   3.2005   4.1589

          k = 0.0833 0.2500 0.4167 (  1661 PWs)   bands (ev):

    -5.6946  -4.8688  -3.9093  -2.7425  -1.4719  -0.5196   0.5655   1.0401
     1.7906   2.2289   2.5569   3.0069   3.1163   4.0419

          k = 0.0833 0.4167 0.4167 (  1666 PWs)   bands (ev):

    -5.3175  -4.7938  -4.5159  -2.9705  -0.9393  -0.4931   0.0093   1.1413
     1.7364   1.8871   2.7320   3.1701   3.4389   3.9096

          k = 0.2500 0.2500 0.2500 (  1658 PWs)   bands (ev):

    -5.8576  -4.2295  -4.2295  -2.9090  -1.1739  -1.1739   0.4181   1.4847
     1.4847   2.5796   2.5931   3.3090   3.3090   3.9566

          k = 0.2500 0.2500 0.4167 (  1670 PWs)   bands (ev):

    -5.5030  -4.7704  -4.1346  -2.9119  -1.4431  -0.8969  -0.0660   1.4765
     2.1685   2.2617   2.7645   3.0329   3.2677   4.4918

          k = 0.2500 0.4167 0.4167 (  1667 PWs)   bands (ev):

    -5.1576  -4.7070  -4.5085  -3.0290  -1.3475  -1.0649  -0.7046   1.7844
     2.0690   2.4886   2.9341   3.2413   3.5061   4.9209

          k = 0.4167 0.4167 0.4167 (  1655 PWs)   bands (ev):

    -4.8898  -4.6091  -4.6091  -3.1086  -1.4925  -1.4925  -1.2675   1.3280
     3.0659   3.0659   3.3905   3.5544   3.5544   5.5926

     highest occupied level (ev):     5.5926

!    total energy              =     -54.86460635 Ry
     estimated scf accuracy    <          2.5E-11 Ry

     The total energy is the sum of the following terms:
     one-electron contribution =      10.90099988 Ry
     hartree contribution      =       5.13724218 Ry
     xc contribution           =     -16.31071538 Ry
     ewald contribution        =     -54.59213304 Ry

     convergence has been achieved in   6 iterations

     Forces acting on atoms (cartesian axes, Ry/au):

     atom    1 type  1   force =    -0.00080757    0.00080757   -0.00080757
     atom    2 type  1   force =     0.00080757   -0.00080757   -0.00080757
     atom    3 type  1   force =    -0.00080757   -0.00080757    0.00080757
     atom    4 type  1   force =     0.00080757    0.00080757    0.00080757
     atom    5 type  1   force =     0.00000000    0.00000000    0.00000000
     atom    6 type  1   force =     0.00000000    0.00000000    0.00000000
     atom    7 type  1   force =     0.00000000    0.00000000    0.00000000

     Total force =     0.002797     Total SCF correction =     0.000005


     Computing stress (Cartesian axis) and pressure

          total   stress  (Ry/bohr**3)                   (kbar)     P=      -29.40
  -0.00019987   0.00000000   0.00000000          -29.40        0.00        0.00
   0.00000000  -0.00019987   0.00000000            0.00      -29.40        0.00
   0.00000000   0.00000000  -0.00019987            0.00        0.00      -29.40

     Energy error            =      1.1E-04 Ry
     Gradient error          =      8.1E-04 Ry/Bohr

     number of scf cycles    =   5
     number of bfgs steps    =   4

     energy             old  =     -54.8645005586 Ry
     energy             new  =     -54.8646063537 Ry

     CASE: energy            _new < energy            _old

     new trust radius        =       0.0120541740 bohr
     new conv_thr            =            1.0E-10 Ry


ATOMIC_POSITIONS (angstrom)
Si            2.7207350400        2.7472530560       -0.0132590080
Si            0.0132590080       -0.0132590080       -0.0132590080
Si            2.7207350400       -0.0132590080        2.7472530560
Si            0.0132590080        2.7472530560        2.7472530560
Si            4.1009910720        4.1009910720        1.3669970240
Si            1.3669970240        1.3669970240        1.3669970240
Si            4.1009910720        1.3669970240        4.1009910720



     Writing config-only to output data dir ./Si8.save/
     NEW-OLD atomic charge density approx. for the potential

     total cpu time spent up to now is      162.0 secs

     per-process dynamical memory:    21.1 Mb

     Self-consistent Calculation

     iteration #  1     ecut=    20.00 Ry     beta= 0.70
     Davidson diagonalization with overlap
     ethr =  1.00E-06,  avg # of iterations =  5.1

     Threshold (ethr) on eigenvalues was too large:
     Diagonalizing with lowered threshold

     Davidson diagonalization with overlap
     ethr =  2.30E-08,  avg # of iterations =  6.0

     total cpu time spent up to now is      177.4 secs

     total energy              =     -54.86463952 Ry
     estimated scf accuracy    <       0.00000524 Ry

     iteration #  2     ecut=    20.00 Ry     beta= 0.70
     Davidson diagonalization with overlap
     ethr =  1.87E-08,  avg # of iterations =  1.3

     total cpu time spent up to now is      179.7 secs

     total energy              =     -54.86463988 Ry
     estimated scf accuracy    <       0.00000029 Ry

     iteration #  3     ecut=    20.00 Ry     beta= 0.70
     Davidson diagonalization with overlap
     ethr =  1.05E-09,  avg # of iterations =  6.1

     total cpu time spent up to now is      184.4 secs

     total energy              =     -54.86464004 Ry
     estimated scf accuracy    <       0.00000003 Ry

     iteration #  4     ecut=    20.00 Ry     beta= 0.70
     Davidson diagonalization with overlap
     ethr =  8.98E-11,  avg # of iterations =  4.5

     total cpu time spent up to now is      188.9 secs

     total energy              =     -54.86464005 Ry
     estimated scf accuracy    <          4.5E-09 Ry

     iteration #  5     ecut=    20.00 Ry     beta= 0.70
     Davidson diagonalization with overlap
     ethr =  1.61E-11,  avg # of iterations =  3.6

     total cpu time spent up to now is      192.5 secs

     total energy              =     -54.86464005 Ry
     estimated scf accuracy    <          9.6E-10 Ry

     iteration #  6     ecut=    20.00 Ry     beta= 0.70
     Davidson diagonalization with overlap
     ethr =  3.43E-12,  avg # of iterations =  5.0

     total cpu time spent up to now is      198.6 secs

     End of self-consistent calculation

          k = 0.0833 0.0833 0.0833 (  1686 PWs)   bands (ev):

    -6.4631  -3.3848  -3.3848  -2.6305  -2.0614  -2.0614   1.7375   1.7732
     1.7732   2.0458   2.7248   3.1319   3.1319   5.5098

          k = 0.0833 0.0833 0.2500 (  1681 PWs)   bands (ev):

    -6.2524  -4.2335  -3.3120  -2.6010  -2.0464  -1.1530   1.3183   1.4964
     1.8925   2.0041   2.4840   2.9827   3.0332   4.7721

          k = 0.0833 0.0833 0.4167 (  1668 PWs)   bands (ev):

    -5.8854  -4.9696  -3.2308  -2.5344  -2.0394  -0.4394   1.0191   1.0847
     1.8021   1.8294   2.5493   3.0228   3.1517   4.1340

          k = 0.0833 0.2500 0.2500 (  1664 PWs)   bands (ev):

    -6.0452  -4.3019  -3.8766  -2.6792  -1.5896  -0.8949   0.8635   1.3783
     1.6758   2.2621   2.4187   3.1073   3.2152   4.1404

          k = 0.0833 0.2500 0.4167 (  1661 PWs)   bands (ev):

    -5.6801  -4.8584  -3.8960  -2.7379  -1.4634  -0.5157   0.5813   1.0492
     1.7926   2.2417   2.5643   3.0139   3.1223   4.0254

          k = 0.0833 0.4167 0.4167 (  1666 PWs)   bands (ev):

    -5.3026  -4.7821  -4.5018  -2.9705  -0.9296  -0.4878   0.0230   1.1565
     1.7391   1.8925   2.7223   3.1861   3.4535   3.8905

          k = 0.2500 0.2500 0.2500 (  1658 PWs)   bands (ev):

    -5.8441  -4.2172  -4.2172  -2.9015  -1.1683  -1.1683   0.4284   1.4945
     1.4945   2.5694   2.6005   3.3258   3.3258   3.9398

          k = 0.2500 0.2500 0.4167 (  1670 PWs)   bands (ev):

    -5.4885  -4.7591  -4.1215  -2.9040  -1.4394  -0.8935  -0.0534   1.4880
     2.1710   2.2522   2.7721   3.0506   3.2847   4.4805

          k = 0.2500 0.4167 0.4167 (  1667 PWs)   bands (ev):

    -5.1430  -4.6947  -4.4949  -3.0219  -1.3428  -1.0621  -0.6951   1.7690
     2.0816   2.4954   2.9480   3.2535   3.5243   4.9094

          k = 0.4167 0.4167 0.4167 (  1655 PWs)   bands (ev):

    -4.8758  -4.5960  -4.5960  -3.0937  -1.4912  -1.4912  -1.2624   1.3087
     3.0800   3.0800   3.3978   3.5729   3.5729   5.5847

     highest occupied level (ev):     5.5847

!    total energy              =     -54.86464005 Ry
     estimated scf accuracy    <          1.7E-11 Ry

     The total energy is the sum of the following terms:
     one-electron contribution =      10.99686999 Ry
     hartree contribution      =       5.09250413 Ry
     xc contribution           =     -16.30419045 Ry
     ewald contribution        =     -54.64982372 Ry

     convergence has been achieved in   6 iterations

     Forces acting on atoms (cartesian axes, Ry/au):

     atom    1 type  1   force =     0.00000162   -0.00000162    0.00000162
     atom    2 type  1   force =    -0.00000162    0.00000162    0.00000162
     atom    3 type  1   force =     0.00000162    0.00000162   -0.00000162
     atom    4 type  1   force =    -0.00000162   -0.00000162   -0.00000162
     atom    5 type  1   force =     0.00000000    0.00000000    0.00000000
     atom    6 type  1   force =     0.00000000    0.00000000    0.00000000
     atom    7 type  1   force =     0.00000000    0.00000000    0.00000000

     Total force =     0.000006     Total SCF correction =     0.000003
     SCF correction compared to forces is large: reduce conv_thr to get better values


     Computing stress (Cartesian axis) and pressure

          total   stress  (Ry/bohr**3)                   (kbar)     P=      -30.72
  -0.00020882   0.00000000   0.00000000          -30.72        0.00        0.00
   0.00000000  -0.00020882   0.00000000            0.00      -30.72        0.00
   0.00000000   0.00000000  -0.00020882            0.00        0.00      -30.72

     Energy error            =      3.4E-05 Ry
     Gradient error          =      1.6E-06 Ry/Bohr

     bfgs converged in   6 scf cycles and   5 bfgs steps
     (criteria: energy <  1.0E-04 Ry, force <  1.0E-03 Ry/Bohr)

     End of BFGS Geometry Optimization

     Final energy             =     -54.8646400513 Ry

     File ./Si8.bfgs deleted, as requested
Begin final coordinates

ATOMIC_POSITIONS (angstrom)
Si            2.7207350400        2.7472530560       -0.0132590080
Si            0.0132590080       -0.0132590080       -0.0132590080
Si            2.7207350400       -0.0132590080        2.7472530560
Si            0.0132590080        2.7472530560        2.7472530560
Si            4.1009910720        4.1009910720        1.3669970240
Si            1.3669970240        1.3669970240        1.3669970240
Si            4.1009910720        1.3669970240        4.1009910720
End final coordinates



     Writing all to output data dir ./Si8.save/

     init_run     :      9.61s CPU      1.63s WALL (       1 calls)
     electrons    :   1127.96s CPU    193.31s WALL (       6 calls)
     update_pot   :      0.56s CPU      0.09s WALL (       5 calls)
     forces       :     10.02s CPU      1.98s WALL (       6 calls)
     stress       :     16.21s CPU      3.05s WALL (       6 calls)

     Called by init_run:
     wfcinit      :      8.88s CPU      1.44s WALL (       1 calls)
     potinit      :      0.05s CPU      0.01s WALL (       1 calls)
     hinit0       :      0.67s CPU      0.18s WALL (       1 calls)

     Called by electrons:
     c_bands      :   1057.69s CPU    183.06s WALL (      42 calls)
     sum_band     :     68.83s CPU     10.01s WALL (      42 calls)
     v_of_rho     :      1.26s CPU      0.21s WALL (      42 calls)
     mix_rho      :      0.23s CPU      0.06s WALL (      42 calls)

     Called by c_bands:
     init_us_2    :      9.84s CPU      2.51s WALL (     970 calls)
     init_us_2:cp :      9.82s CPU      2.50s WALL (     970 calls)
     cegterg      :   1046.69s CPU    180.39s WALL (     420 calls)

     Called by *egterg:
     cdiaghg      :      5.49s CPU      1.11s WALL (    2232 calls)
     h_psi        :    875.31s CPU    145.22s WALL (    2352 calls)
     g_psi        :     25.65s CPU      5.66s WALL (    1922 calls)

     Called by h_psi:
     h_psi:calbec :     71.25s CPU     10.23s WALL (    2352 calls)
     vloc_psi     :    790.82s CPU    132.44s WALL (    2352 calls)
     add_vuspsi   :      2.59s CPU      0.47s WALL (    2352 calls)

     General routines
     calbec       :     79.31s CPU     11.62s WALL (    2652 calls)
     fft          :      1.84s CPU      0.38s WALL (     473 calls)
     ffts         :      0.03s CPU      0.00s WALL (      42 calls)
     fftw         :    827.83s CPU    136.71s WALL (   45688 calls)

     Parallel routines

     PWSCF        :  19m25.17s CPU   3m20.27s WALL


   This run was terminated on:  10:20:36  10Feb2023            

=------------------------------------------------------------------------------=
   JOB DONE.
=------------------------------------------------------------------------------=
